LAMMPS data file: 64 Si + 1 H at tetrahedral interstitial (T-site) — bulk diffusion variant

65 atoms
2 atom types

-0.065615 10.927615 xlo xhi
-0.065615 10.927615 ylo yhi
-0.065615 10.927615 zlo zhi

Masses

1 28.0855  # Si
2 1.00794  # H

Atoms

     1  1  1.308570  1.308521  1.308564
     2  1  4.056847  4.056794  1.308527
     3  1  4.056811  1.308469  4.056845
     4  1  1.308465  4.056881  4.056846
     5  1  -0.065603  2.682626  2.682755
     6  1  5.431017  2.682678  2.682703
     7  1  9.553454  1.308483  4.056922
     8  1  6.805185  1.308598  1.308573
     9  1  2.682655  2.682718  5.430933
    10  1  9.553531  4.056812  1.308634
    11  1  8.179353  5.430999  2.682730
    12  1  8.179317  -0.065611  2.682701
    13  1  6.805151  4.056902  4.056863
    14  1  8.179318  2.682709  5.430975
    15  1  5.431028  5.430981  -0.065564
    16  1  8.179352  2.682733  -0.065598
    17  1  1.308555  1.308560  6.805144
    18  1  4.056795  4.056862  6.805111
    19  1  4.056815  1.308535  9.553445
    20  1  1.308478  4.056861  9.553444
    21  1  10.927582  2.682668  8.179286
    22  1  8.179288  -0.065574  8.179315
    23  1  6.805140  1.308580  6.805162
    24  1  9.553431  4.056889  6.805215
    25  1  5.430971  2.682718  8.179311
    26  1  6.805146  4.056841  9.553497
    27  1  2.682649  2.682673  10.927578
    28  1  9.553428  1.308490  9.553529
    29  1  5.431016  -0.065582  5.431002
    30  1  1.308573  6.805168  1.308510
    31  1  4.056853  9.553391  1.308504
    32  1  4.056872  6.805134  4.056807
    33  1  1.308562  9.553456  4.056804
    34  1  -0.065593  8.179293  2.682649
    35  1  6.805216  6.805185  1.308538
    36  1  9.553452  6.805181  4.056893
    37  1  6.805097  9.553502  4.056771
    38  1  5.431031  8.179315  2.682626
    39  1  9.553489  9.553458  1.308531
    40  1  8.179272  8.179388  5.430976
    41  1  -0.065546  10.927595  -0.065590
    42  1  2.682674  5.431005  2.682689
    43  1  5.431016  10.927613  -0.065584
    44  1  2.682765  10.927548  2.682625
    45  1  10.927590  5.431007  -0.065553
    46  1  2.682711  8.179315  5.430901
    47  1  1.308575  6.805240  6.805153
    48  1  4.056895  9.553435  6.805122
    49  1  4.056850  6.805035  9.553448
    50  1  1.308521  9.553409  9.553384
    51  1  5.430978  8.179287  8.179319
    52  1  2.682725  8.179255  10.927521
    53  1  -0.065613  10.927586  5.431039
    54  1  10.927614  8.179296  8.179336
    55  1  8.179297  5.431009  8.179370
    56  1  9.553431  9.553446  6.805179
    57  1  9.553456  6.805141  9.553548
    58  1  6.805090  9.553504  9.553479
    59  1  6.805157  6.805225  6.805179
    60  1  8.179308  8.179314  10.927566
    61  1  2.682660  5.431007  8.179247
    62  1  10.927605  5.431054  5.431062
    63  1  5.430995  5.431052  5.431033
    64  1  2.682676  10.927569  8.179241
    66  2  4.007635  4.007635  4.007635
